2
Lattice="1.0 0.0 0.0 0.0 1.0 0.0 0.0 0.0 1.0" Properties=species:S:1:pos:R:3:initial_magmoms:R:1:forces:R:3 energy=-414.106598174094 free_energy=-414.106598174094 pbc="F F F"
Be       0.00000000       0.00000000       0.26965400       0.80000000       0.00000000       0.00000000       0.07956459
H        0.00000000       0.00000000      -1.07861600       0.20000000       0.00000000      -0.00000000      -0.07956459
