3
Lattice="1.0 0.0 0.0 0.0 1.0 0.0 0.0 0.0 1.0" Properties=species:S:1:pos:R:3:initial_magmoms:R:1:forces:R:3 energy=-2082.73797164413 free_energy=-2082.73797164413 pbc="F F F"
C        0.00000000       0.00000000      -0.47017349       0.00000000       0.00000000       0.00000000       0.00289444
C       -0.00000000      -0.00000000       0.73950425       1.00000000      -0.00000000      -0.00000000      -0.00078063
H       -0.00000000      -0.00000000      -1.54199476       0.00000000      -0.00000000      -0.00000000      -0.00211381
