7
Lattice="1.0 0.0 0.0 0.0 1.0 0.0 0.0 0.0 1.0" Properties=species:S:1:pos:R:3:initial_magmoms:R:1:forces:R:3 energy=-2151.68335272302 free_energy=-2151.68335272302 pbc="F F F"
C       -0.01435900      -0.69461700       0.00000000       0.00000000      -0.17630111       0.44086245       0.00000000
C       -0.01435900       0.79447300       0.00000000       1.00000000       0.09437694      -0.34946007      -0.00000000
H        1.00610100      -1.10404200       0.00000000       0.00000000       0.21478780      -0.11869044       0.00000000
H       -0.51703700      -1.09361300       0.88483900       0.00000000      -0.04804681      -0.10847492       0.17026602
H       -0.51703700      -1.09361300      -0.88483900       0.00000000      -0.04804681      -0.10847492      -0.17026602
H        0.10013700       1.34606500       0.92370500       0.00000000      -0.01838500       0.12211896       0.21023579
H        0.10013700       1.34606500      -0.92370500       0.00000000      -0.01838500       0.12211896      -0.21023579
