10
Lattice="1.0 0.0 0.0 0.0 1.0 0.0 0.0 0.0 1.0" Properties=species:S:1:pos:R:3:initial_magmoms:R:1:forces:R:3 energy=-3220.56908294588 free_energy=-3220.56908294588 pbc="F F F"
C        0.01422300       0.54385000       0.00000000       1.00000000      -0.12896612      -0.32380774       0.00000000
C        0.01422300      -0.19974200       1.29157200       0.00000000       0.15643643       0.27817410      -0.25962802
C        0.01422300      -0.19974200      -1.29157200       0.00000000       0.15643643       0.27817410       0.25962802
H       -0.32289000       1.57532900       0.00000000       0.00000000      -0.00287630       0.22339746      -0.00000000
H        0.22141700       0.45917400       2.13847700       0.00000000       0.00296521       0.08271761       0.15911392
H        0.22141700       0.45917400      -2.13847700       0.00000000       0.00296521       0.08271761      -0.15911392
H       -0.95515700      -0.68462900       1.48463300       0.00000000      -0.19955988      -0.12673073       0.06411310
H        0.76718100      -0.99530800       1.28623900       0.00000000       0.10607945      -0.18395584       0.02749256
H        0.76718100      -0.99530800      -1.28623900       0.00000000       0.10607945      -0.18395584      -0.02749256
H       -0.95515700      -0.68462900      -1.48463300       0.00000000      -0.19955988      -0.12673073      -0.06411310
