2
Lattice="1.0 0.0 0.0 0.0 1.0 0.0 0.0 0.0 1.0" Properties=species:S:1:pos:R:3:initial_magmoms:R:1:forces:R:3 energy=-1045.82925616006 free_energy=-1045.82925616006 pbc="F F F"
C        0.00000000       0.00000000       0.16007400       1.00000000      -0.00000000      -0.00000000       0.39758181
H        0.00000000       0.00000000      -0.96044600       0.00000000      -0.00000000       0.00000000      -0.39758181
