3
Lattice="1.0 0.0 0.0 0.0 1.0 0.0 0.0 0.0 1.0" Properties=species:S:1:pos:R:3:initial_magmoms:R:1:forces:R:3 energy=-1064.1967960689 free_energy=-1064.1967960689 pbc="F F F"
C        0.00000000       0.00000000       0.11038100       2.00000000      -0.00000000       0.00000000      -0.00928778
H        0.00000000       0.98262200      -0.33114200       0.00000000      -0.00000000       0.34522707       0.00464389
H        0.00000000      -0.98262200      -0.33114200       0.00000000      -0.00000000      -0.34522707       0.00464389
