4
Lattice="1.0 0.0 0.0 0.0 1.0 0.0 0.0 0.0 1.0" Properties=species:S:1:pos:R:3:initial_magmoms:R:1:forces:R:3 energy=-1082.81553617888 free_energy=-1082.81553617888 pbc="F F F"
C        0.00000000       0.00000000       0.00000000       1.00000000      -0.00000000       0.00002371      -0.00000000
H        0.00000000       1.07841000       0.00000000       0.00000000       0.00000000       0.25876895       0.00000000
H        0.93393000      -0.53920500       0.00000000       0.00000000       0.22411976      -0.12939633       0.00000000
H       -0.93393000      -0.53920500       0.00000000       0.00000000      -0.22411976      -0.12939633       0.00000000
