5
Lattice="1.0 0.0 0.0 0.0 1.0 0.0 0.0 0.0 1.0" Properties=species:S:1:pos:R:3:initial_magmoms:R:1:forces:R:3 energy=-3128.92125543537 free_energy=-3128.92125543537 pbc="F F F"
C        0.68744800       0.02962600      -0.08201400       0.70000000      -0.21729870      -0.07232338       0.15120718
O       -0.67209400      -0.12564800       0.03040500       0.30000000       0.01907820       0.10945552      -0.12050798
H       -1.09185000       0.74028200      -0.09516700       0.00000000      -0.03323636      -0.03974313       0.04083332
H        1.12278300       0.97526300       0.22599300       0.00000000       0.07476841       0.23362659      -0.04014329
H        1.22113100      -0.88811600       0.11801500       0.00000000       0.15668846      -0.23101559      -0.03138923
