3
Lattice="1.0 0.0 0.0 0.0 1.0 0.0 0.0 0.0 1.0" Properties=species:S:1:pos:R:3:initial_magmoms:R:1:forces:R:3 energy=-3096.22583926339 free_energy=-3096.22583926339 pbc="F F F"
C        0.06256000       0.59392600       0.00000000       1.00000000       0.13579136      -0.93038247      -0.00000000
O        0.06256000      -0.59691400       0.00000000       0.00000000       0.03625981       0.77109153      -0.00000000
H       -0.87583500       1.21175500       0.00000000       0.00000000      -0.17205116       0.15929095       0.00000000
