2
Lattice="1.0 0.0 0.0 0.0 1.0 0.0 0.0 0.0 1.0" Properties=species:S:1:pos:R:3:initial_magmoms:R:1:forces:R:3 energy=-14561.3290364603 free_energy=-14561.3290364603 pbc="F F F"
Cl      -0.00000000      -0.00000000       0.49990964       1.00000000      -0.00000000       0.00000000       0.00375580
O       -0.00000000      -0.00000000      -1.07835264       0.00000000       0.00000000      -0.00000000      -0.00375580
