5
Lattice="1.0 0.0 0.0 0.0 1.0 0.0 0.0 0.0 1.0" Properties=species:S:1:pos:R:3:initial_magmoms:R:1:forces:R:3 energy=-3128.93186532606 free_energy=-3128.93186532606 pbc="F F F"
C        0.68533498       0.02271639      -0.03661884       0.70000000       0.00173769       0.00070081      -0.00057720
O       -0.67636079      -0.12637790      -0.01004527       0.30000000       0.00045717      -0.00097793       0.00030204
H       -1.09330515       0.74653837      -0.07201000       0.00000000       0.00054711      -0.00025828       0.00007881
H        1.12097572       0.99204037       0.20120506       0.00000000      -0.00051702       0.00178116       0.00020474
H        1.23077323      -0.90351022       0.11470105       0.00000000      -0.00222495      -0.00124576      -0.00000840
