3
Lattice="1.0 0.0 0.0 0.0 1.0 0.0 0.0 0.0 1.0" Properties=species:S:1:pos:R:3:initial_magmoms:R:1:forces:R:3 energy=-1519.38907124223 free_energy=-1519.38907124223 pbc="F F F"
N        0.00000000       0.00000000       0.14169000       1.00000000       0.00000000       0.00000000       0.41882180
H        0.00000000       0.80644200      -0.49591300       0.00000000       0.00000000       0.19519290      -0.20941090
H        0.00000000      -0.80644200      -0.49591300       0.00000000       0.00000000      -0.19519290      -0.20941090
