2
Lattice="1.0 0.0 0.0 0.0 1.0 0.0 0.0 0.0 1.0" Properties=species:S:1:pos:R:3:initial_magmoms:R:1:forces:R:3 energy=-3532.71144445676 free_energy=-3532.71144445676 pbc="F F F"
N        0.00000000       0.00000000      -0.60944200       0.60000000       0.00000000      -0.00000000      -1.43037283
O        0.00000000       0.00000000       0.53326100       0.40000000       0.00000000       0.00000000       1.43037283
