3
Lattice="1.0 0.0 0.0 0.0 1.0 0.0 0.0 0.0 1.0" Properties=species:S:1:pos:R:3:initial_magmoms:R:1:forces:R:3 energy=-5578.21296981686 free_energy=-5578.21296981686 pbc="F F F"
N        0.00000000       0.00000000       0.33227300       1.00000000       0.00000000       0.00000001      -0.65266773
O        0.00000000       1.11812200      -0.14537000       0.00000000       0.00000000      -0.85695539       0.32633387
O        0.00000000      -1.11812200      -0.14537000       0.00000000       0.00000000       0.85695538       0.32633386
