2
Lattice="1.0 0.0 0.0 0.0 1.0 0.0 0.0 0.0 1.0" Properties=species:S:1:pos:R:3:initial_magmoms:R:1:forces:R:3 energy=-2059.63713466457 free_energy=-2059.63713466457 pbc="F F F"
O        0.00000000      -0.00000000       0.11062848       0.50000000       0.00000000      -0.00000000       0.00073693
H       -0.00000000       0.00000000      -0.87212648       0.50000000      -0.00000000       0.00000000      -0.00073693
