3
Lattice="1.0 0.0 0.0 0.0 1.0 0.0 0.0 0.0 1.0" Properties=species:S:1:pos:R:3:forces:R:3 energy=-5022.67805455157 free_energy=-5022.67805455157 pbc="F F F"
N        0.00000000       0.00000000      -1.23196900       0.00000000       0.00000000       3.38453108
N        0.00000000       0.00000000      -0.06085100      -0.00000000      -0.00000000      -2.93510415
O        0.00000000       0.00000000       1.13121800       0.00000000       0.00000000      -0.44942693
