3
Lattice="1.0 0.0 0.0 0.0 1.0 0.0 0.0 0.0 1.0" Properties=species:S:1:pos:R:3:initial_magmoms:R:1:forces:R:3 energy=-9316.13741291447 free_energy=-9316.13741291447 pbc="F F F"
P        0.00000000       0.00000000       0.11539600       1.00000000      -0.00000000       0.00000000       0.52733653
H        0.00000000       1.02564200      -0.86546800       0.00000000      -0.00000000       0.15568555      -0.26366827
H        0.00000000      -1.02564200      -0.86546800       0.00000000      -0.00000000      -0.15568555      -0.26366827
