4
Lattice="1.0 0.0 0.0 0.0 1.0 0.0 0.0 0.0 1.0" Properties=species:S:1:pos:R:3:initial_magmoms:R:1:forces:R:3 energy=-7920.9250437223 free_energy=-7920.9250437223 pbc="F F F"
Si       0.00000000       0.00000000       0.07929900       1.00000000      -0.00000000      -0.00005775       0.15958161
H        0.00000000       1.41328000      -0.37006100       0.00000000       0.00000000       0.18192571      -0.05320611
H        1.22393700      -0.70664000      -0.37006100       0.00000000       0.15753195      -0.09093398      -0.05318775
H       -1.22393700      -0.70664000      -0.37006100       0.00000000      -0.15753195      -0.09093398      -0.05318775
