2
Lattice="1.0 0.0 0.0 0.0 1.0 0.0 0.0 0.0 1.0" Properties=species:S:1:pos:R:3:initial_magmoms:R:1:forces:R:3 energy=-12876.2237182484 free_energy=-12876.2237182484 pbc="F F F"
O        0.00000000       0.00000000      -1.01599200       1.00000000      -0.00000000       0.00000000       1.05388917
S        0.00000000       0.00000000       0.50799600       1.00000000       0.00000000       0.00000000      -1.05388917
